     680
 i =        0, time =        0.000, E =     -7805.4066306424
  F         8.6071949100        7.8628783900        1.7992268600
  F         8.2419259700        7.9144662000        5.3219036800
  C        -1.6886249100        7.9668736100        5.3514934200
  C         4.3517452900        7.1624133300        5.2651411800
  C        -2.9819635400        7.2222801900        5.3371698300
  C         5.7131019000        5.0039845900        5.3462211700
  C        -0.5507775000       11.4278802000        5.2804317000
  C        -0.5502083300        9.9370559200        5.2850944600
  C         6.8519703600        3.0340776500        5.2799512700
  C        -1.7374189400       12.1942358300        5.2944888700
  C         3.1634243400        5.1097550100        5.3004964200
  C         1.8803739500        7.2212388400        5.2171937500
  C         5.6676873400        0.7768831600        5.2601967800
  C        10.5395715400        5.1097439800        5.2459787200
  C         2.3141824700        5.7568982100        1.7571165000
  C         4.7137542600        7.1115960500        1.7780095100
  C        -2.6140975700        7.1693116100        1.7769243800
  C        -1.3235541100        7.9162467300        1.8082959500
  C        -0.1864873300       11.3777543300        1.7559531700
  C        10.9031489200        5.0580679700        1.7548721200
  C         6.0333999000        0.7252270800        1.7379657300
  C        -4.2403013500        7.8643455600        5.3274246000
  C         7.9898903200        5.0042718700        5.2009423600
  C         3.5275249100        5.0570057200        1.7593683500
  C        -0.1851959500        9.8863660700        1.7565870400
  C         2.2439325600        7.1687848700        1.7236073400
  C         9.7132606900        7.1110850400        1.7677083400
  C         7.2168621700        2.9832040400        1.7605056100
  C         4.7850799200        5.6999019500        1.7857301500
  C         6.0770032400        4.9529998700        1.8196697300
  C         0.9535642400        7.9162849100        1.6752048400
  C         9.6447852000        5.7002342900        1.7306318400
  C         8.3541192400        4.9539591800        1.6829063100
  C         7.2181649600        1.4917194100        1.7512125000
  C         4.4217716300        5.7510312100        5.3110127400
  C        -3.8720631500        7.8112934500        1.7641619900
  C         6.8526619400        1.5429690900        5.2730372300
  C         0.9988278800       12.1437441200        1.7675946400
  C        -2.6822109800        5.7583726800        1.7485430600
  C         9.3480513800        7.1621311600        5.2885421800
  C         3.5011235600        7.8117242000        1.7564276900
  C         3.1391334300        7.8632457200        5.2385660700
  C        -1.3720105500       12.1445647700        1.7555223300
  C         9.2805171700        5.7511021700        5.2399343900
  C         0.5871852500        7.9664585600        5.1862906300
  C         1.9520781600        5.8103471600        5.2528468300
  C         8.0383391300        0.7767637500        5.2741888600
  C         8.4039761300        0.7251245600        1.7514183400
  C        -3.0531666100        5.8112559300        5.3200722500
  C         0.6365843100       12.1932345800        5.2531288900
  N         0.6271761600        9.3099402300        5.0940637000
  N         8.0299102600        3.6617517200        5.0934994400
  N         8.3947197900        3.6113749200        1.5751144000
  N         7.2137260500        5.6665891500        1.7300201000
  N        -1.7264619300        9.3079970000        5.4804078500
  N        -0.5524951500        7.2530554800        5.2456250900
  N        -1.3620273500        9.2565658700        1.9476504800
  N        -0.1864050500        7.2032785100        1.7170174900
  N         6.0397240800        3.6117811400        1.9545762100
  N         6.8505028300        5.7174528700        5.2608763000
  N         5.6745555700        3.6623516400        5.4709234100
  N         0.9936964600        9.2594453300        1.5733056600
  F         3.2389173200        9.1968828700        5.2430754000
  F         9.6055102100        1.3075906100        1.8002132300
  F         3.4340287500        3.7230966000        1.7228365300
  F         5.8171806300        7.8656682000        1.8012289100
  F         5.4573870300        7.9151457700        5.2449977000
  F         3.0614010200        3.7763392600        5.3223982100
  F        -1.9488765500        5.0580376100        5.3232848300
  F        10.9981378800        3.7249678400        1.7987179600
  F         4.4648261300        1.3592949300        5.2435616100
  F        10.6401513000        3.7761742300        5.2428742100
  F        -2.9438002200       11.6154160100        5.3215823100
  F         4.8304017200        1.3075546300        1.7215295000
  F        -1.5762088400        5.0062013000        1.7228959900
  F        -3.9667661300        9.1443864200        1.7233374000
  F         2.2011865000       11.5614298000        1.8005300900
  F         0.8489010300        5.0555851700        5.2433542200
  F        -4.3403350800        9.1975981900        5.3226475800
  F        -2.5737008400       11.5611961000        1.7217367500
  F         3.5966578900        9.1454994800        1.7992405200
  F         9.2393731700        1.3598073000        5.3232427000
  F         1.2080371000        5.0055487700        1.7985600200
  F         1.8415561700       11.6124871800        5.2444034300
  F        23.4082402200        7.8630246100        1.7990776500
  F        23.0412826400        7.9156703100        5.3218925500
  C        13.1102004200        7.9676162800        5.3393999800
  C        19.1467442200        7.1635816400        5.3029734100
  C        11.8190657300        7.2216441000        5.3089053100
  C        20.5083628700        5.0072241400        5.3561812600
  C        14.2493664200       11.4283796800        5.2776112200
  C        14.2491638500        9.9376139000        5.2815319100
  C        21.6480203200        3.0351680700        5.2953778800
  C        13.0628275200       12.1949313000        5.2919048000
  C        17.9592097500        5.1098655500        5.3142640600
  C        16.6774684400        7.2212791100        5.2399849700
  C        20.4616048300        0.7786267000        5.3191002500
  C        25.3349657700        5.1106994600        5.3058319300
  C        17.1135826800        5.7577351500        1.7778050800
  C        19.5127781300        7.1122327500        1.7903817800
  C        12.1845595400        7.1692508600        1.7871818800
  C        13.4754316200        7.9161239300        1.8179972200
  C        14.6165577500       11.3778854100        1.7233809300
  C        25.7055669900        5.0579894100        1.7368131100
  C        20.8284513900        0.7262192900        1.7914533900
  C        10.5601087200        7.8629905100        5.3102556000
  C        22.7864845100        5.0073907700        5.2638967000
  C        18.3261993600        5.0576150300        1.7963207200
  C        14.6151274000        9.8866274900        1.7238147300
  C        17.0435586500        7.1687075200        1.7456717200
  C        24.5152397900        7.1116279400        1.7715598500
  C        22.0157612800        2.9825610200        1.7701129100
  C        19.5840891800        5.7010327200        1.8070658400
  C        20.8765673500        4.9554026800        1.8314134800
  C        15.7528124700        7.9149020200        1.7055301600
  C        24.4469897800        5.7003438500        1.7458430400
  C        23.1548441000        4.9544498500        1.7288167500
  C        22.0153351800        1.4914327100        1.7790446300
  C        19.2169131000        5.7529010800        5.3278933400
  C        10.9257133700        7.8111606200        1.7869303900
  C        21.6481378100        1.5444257200        5.3064569200
  C        15.8032944700       12.1429739400        1.7201322900
  C        12.1164198300        5.7577687500        1.7552253300
  C        24.1475180500        7.1641251400        5.3122980800
  C        18.3003814100        7.8121499900        1.7700362600
  C        17.9355622900        7.8637444500        5.2571308800
  C        13.4303106500       12.1447599700        1.7389728200
  C        24.0776528900        5.7534742800        5.2905092900
  C        15.3865532800        7.9669258100        5.1976907600
  C        16.7470375200        5.8102663400        5.2895336200
  C        22.8341187700        0.7778774800        5.3096795000
  C        23.2015548300        0.7243717900        1.7733109700
  C        11.7516471000        5.8105572500        5.2669851500
  C        15.4367381400       12.1936703500        5.2508545000
  N        15.4275920200        9.3100709100        5.0980349700
  N        22.8320681000        3.6646121500        5.1670018000
  N        23.1992804300        3.6114907300        1.6346269400
  N        22.0167374300        5.6696493700        1.8000926300
  N        13.0714102000        9.3088745600        5.4676933600
  N        14.2471192800        7.2539967900        5.2507133300
  N        13.4329147700        9.2607384200        1.8823649700
  N        14.6155607600        7.2021652500        1.7968235500
  N        20.8311941900        3.6110471500        1.8936134900
  N        21.6482120700        5.7221843900        5.3313809400
  N        20.4629203200        3.6630550800        5.4136159500
  N        15.7953764700        9.2550916000        1.5672768300
  F        18.0386228600        9.1971342000        5.2437432200
  F        24.4042895100        1.3070271100        1.7993753600
  F        18.2264617000        3.7239516300        1.8006560500
  F        20.6172316200        7.8656359700        1.8004348500
  F        20.2508337800        7.9173616400        5.3227786100
  F        17.8606910400        3.7761731700        5.3230761700
  F        12.8579717800        5.0583042900        5.2447526900
  F        25.8065994000        3.7243644100        1.7218101500
  F        19.2576070700        1.3602175000        5.3221530600
  F        25.4328155300        3.7771270400        5.3220721900
  F        11.8567399300       11.6156106400        5.3213092700
  F        19.6240298700        1.3079677500        1.7998879100
  F        13.2233875900        5.0062972600        1.7228673900
  F        10.8254900900        9.1447793800        1.8006777400
  F        17.0075937300       11.5608433900        1.7217895800
  F        15.6417788600        5.0576151600        5.3219136900
  F        10.4597527100        9.1966866500        5.3234109300
  F        12.2274619200       11.5618996500        1.7222509900
  F        18.3965349700        9.1457936300        1.8001347500
  F        24.0377178400        1.3592015600        5.3230158700
  F        16.0080191800        5.0052513000        1.7988819600
  F        16.6416234800       11.6125407600        5.2449243000
  F         1.2040210800       20.6800483100        1.7989680400
  F         0.8383547900       20.7318667000        5.3218791700
  C        -9.0888138200       20.7829947400        5.3329848300
  C        -3.0512108100       19.9806807100        5.2803351900
  C       -10.3797339700       20.0368076700        5.2989793200
  C        -1.6907164100       17.8212485600        5.3482690100
  C        -7.9512184400       24.2446449200        5.2363693100
  C        -7.9509584500       22.7537180500        5.2283760500
  C        -0.5510536300       15.8507794600        5.2483086200
  C        -9.1376461500       25.0108662000        5.2513274700
  C        -4.2394972400       17.9266043000        5.3062979900
  C        -5.5209540300       20.0377177600        5.2438087300
  C        -1.7353706000       13.5937776300        5.2669751500
  C         3.1341959700       17.9268351700        5.2652438900
  C        -5.0859492500       18.5751649000        1.7408131200
  C        -2.6884159700       19.9275444700        1.7828502200
  C       -10.0148796300       19.9861471700        1.7939457300
  C        -8.7235859000       20.7322368200        1.8209388700
  C        -7.5855007400       24.1930826800        1.7110499500
  C         3.4991862500       17.8743271000        1.7420459100
  C        -1.3743474400       13.5441882000        1.7780031700
  C       -11.6373041200       20.6797110100        5.2753319000
  C         0.5862128100       17.8222464000        5.2255357100
  C        -3.8749684600       17.8744735100        1.7914628300
  C        -7.5858673100       22.7022214000        1.6988540800
  C        -5.1565985200       19.9861924700        1.7046069100
  C         2.3101217300       19.9280279200        1.7709781100
  C        -0.1877359200       15.8005711900        1.7701123400
  C        -2.6172922400       18.5165874700        1.8199116400
  C        -1.3260744600       17.7708407500        1.8580376200
  C        -6.4479361600       20.7321396200        1.6689617100
  C         2.2410937800       18.5164651800        1.7367206900
  C         0.9500252700       17.7706829700        1.7086753900
  C        -0.1878806200       14.3098984600        1.7717594900
  C        -2.9814325500       18.5689420900        5.3170291700
  C       -11.2733714900       20.6284577500        1.7836909100
  C        -0.5489759200       14.3596267800        5.2509045200
  C        -6.3998561500       24.9592611300        1.7213033700
  C       -10.0849509100       18.5746527900        1.7593880700
  C         1.9443444200       19.9795736300        5.3023460300
  C        -3.8992658500       20.6281415700        1.7304326200
  C        -4.2640999400       20.6808458000        5.2759208200
  C        -8.7719000500       24.9591813700        1.7279653600
  C         1.8762434200       18.5686542300        5.2591977300
  C        -6.8121139600       20.7835234400        5.2051625800
  C        -5.4509347800       18.6269279200        5.2641410000
  C         0.6372708100       13.5932322500        5.2470565300
  C         0.9980376400       13.5434885900        1.7703791900
  C       -10.4502670000       18.6256717700        5.2774818800
  C        -6.7655579000       25.0109889300        5.2452317200
  N        -6.7728261500       22.1224080900        5.0507741000
  N         0.6286305600       16.4822180400        5.0881306800
  N         0.9893108900       16.4295384000        1.5806008100
  N        -0.1869256800       18.4843106800        1.8020494500
  N        -9.1311920200       22.1274076400        5.3998618300
  N        -7.9476176800       20.0705557300        5.3163481100
  N        -8.7650466100       22.0769118600        1.8801384800
  N        -7.5820642100       20.0199644300        1.8000848800
  N        -1.3663500900       16.4275453400        1.9531912600
  N        -0.5504485700       18.5351273400        5.3266642200
  N        -1.7332215000       16.4765814800        5.4073033600
  N        -6.4098893000       22.0704109900        1.5071356400
  F        -4.1716536600       22.0146253000        5.3217964700
  F         2.2010119000       14.1247443800        1.8007869300
  F        -3.9764133200       16.5409060100        1.8004514700
  F        -1.5855312300       20.6825015500        1.8006225100
  F        -1.9452569000       20.7325270500        5.2453209000
  F        -4.3420906200       16.5932666000        5.3228972400
  F        -9.3443413800       17.8743424000        5.2455474600
  F         3.6026708000       16.5410179300        1.7219764000
  F        -2.9381675800       14.1761068500        5.2439521600
  F         3.2367838700       16.5933503500        5.2445624900
  F       -10.3416479700       24.4304529000        5.2434239600
  F        -2.5791188100       14.1249613500        1.7987640300
  F        -8.9788732200       17.8228314700        1.7231469100
  F       -11.3775178700       21.9616410000        1.8006319500
  F        -5.1954519300       24.3773408000        1.7225978700
  F        -6.5543615900       17.8725727600        5.2435417400
  F       -11.7352769800       22.0128016400        5.2444334400
  F        -9.9756659600       24.3784652300        1.7205586200
  F        -3.7985264400       21.9618464100        1.7223422900
  F         1.8417208800       14.1742980800        5.2442438000
  F        -6.1889079500       17.8201980000        1.7211433200
  F        -5.5610583800       24.4295019800        5.2448193400
  F        16.0114154600       20.6798085000        1.7213229500
  F        15.6455371200       20.7316790400        5.2433043400
  C         5.7063003000       20.7840073000        5.3537452700
  C        11.7483165100       19.9796945900        5.2804743900
  C         4.4144132200       20.0387711200        5.3329045200
  C        13.1106855500       17.8223088900        5.3677510100
  C         6.8417005100       24.2461630100        5.3188169200
  C         6.8437960100       22.7553687000        5.3200763400
  C        14.2502480000       15.8520014100        5.2404107400
  C         5.6555141800       25.0126489200        5.3232632700
  C        10.5588744400       17.9269512600        5.3159054300
  C         9.2761302600       20.0384773000        5.2500751000
  C        13.0650161900       13.5945752800        5.2633772400
  C        17.9368455900       17.9263879400        5.2828836100
  C         9.7114329700       18.5726746800        1.7654142200
  C        12.1095495400       19.9287572100        1.7879879100
  C         4.7799132700       19.9856779300        1.7961929300
  C         6.0711113200       20.7314506600        1.8228155200
  C         7.2095810100       24.1930528500        1.7757489300
  C        18.3023901500       17.8746870300        1.7589880800
  C        13.4282146900       13.5446559400        1.7616998000
  C         3.1561227800       20.6805216100        5.3228406000
  C        15.3878063400       17.8232720500        5.2472863200
  C        10.9252213000       17.8733026800        1.7637001500
  C         7.2094836900       22.7020178500        1.7867463900
  C         9.6397824800       19.9841083400        1.7423850300
  C        17.1158469600       19.9274993300        1.7451846600
  C        14.6153277900       15.8009267800        1.7326953200
  C        12.1825294300       18.5175523200        1.7937205900
  C        13.4754364300       17.7721735700        1.8249810000
  C         8.3481606100       20.7300987000        1.7041805700
  C        17.0451156600       18.5172038400        1.7318885800
  C        15.7529731000       17.7720458800        1.7034655600
  C        14.6158072300       14.3098582900        1.7395155200
  C        11.8183990200       18.5687674200        5.3275057600
  C         3.5228087600       20.6280658900        1.7696716400
  C        14.2516918600       14.3605931300        5.2444449900
  C         8.3972174900       24.9582136100        1.7540636900
  C         4.7101093500       18.5752842500        1.7809173500
  C        16.7506211600       19.9797934700        5.2639639000
  C        10.8967083700       20.6283590800        1.7695986600
  C        10.5355127300       20.6801171800        5.2555888300
  C         6.0230436800       24.9600881300        1.7930763000
  C        16.6798498500       18.5693317900        5.2653460400
  C         7.9835340300       20.7849992100        5.2197445600
  C         9.3459414900       18.6272869500        5.2923209900
  C        15.4374574400       13.5936519300        5.2434329800
  C        15.8025041800       13.5429708700        1.7226887400
  C         4.3447917000       18.6281234100        5.3060001500
  C         8.0279454400       25.0120798700        5.3127983800
  N         8.0258332000       22.1296442700        5.1597401800
  N        15.4285432800       16.4863736700        5.0784551900
  N        15.7947214000       16.4319332500        1.5669333400
  N        14.6164341900       18.4857212200        1.8076843500
  N         5.6648444800       22.1244010100        5.4867632600
  N         6.8428545200       20.0711465500        5.2446808400
  N         6.0301249900       22.0720073900        1.9561279800
  N         7.2071831400       20.0173030800        1.7213869200
  N        13.4329386700       16.4275861500        1.8850704800
  N        14.2533137400       18.5341063000        5.3886409200
  N        13.0671710400       16.4770282600        5.3937125400
  N         8.3917155200       22.0743671800        1.6361561600
  F        10.6362548600       22.0136119400        5.2426468100
  F        17.0077137500       14.1229370000        1.7218017000
  F        10.8310924200       16.5399314800        1.7226991700
  F        13.2135197100       20.6824998200        1.8011824100
  F        12.8547116300       20.7314674300        5.2444068100
  F        10.4580754200       16.5932873900        5.3236803100
  F         5.4489425000       17.8751194400        5.3226852000
  F        18.3960026900       16.5415371200        1.7991854400
  F        11.8618773900       14.1762101900        5.2439027000
  F        18.0300669500       16.5933534500        5.3224080700
  F         4.4512779200       24.4316836700        5.3223163500
  F        12.2222962900       14.1244339900        1.7994008600
  F         5.8145430700       17.8228578400        1.8007457900
  F         3.4296718100       21.9610566800        1.7228837300
  F         9.6030910000       24.3781764300        1.7230467400
  F         8.2395467600       17.8750265300        5.3221219200
  F         3.0561627700       22.0140474300        5.3226065800
  F         4.8180338200       24.3798136800        1.7998512800
  F        10.9935851000       21.9621362400        1.7998162000
  F        16.6418510600       14.1749381700        5.2445227600
  F         8.6050138000       17.8216488900        1.7983809500
  F         9.2317275700       24.4307131700        5.3229228800
  F         7.8768156900        7.9667061700        8.8436624700
  F         7.5105637500        8.0197194100       12.3656231500
  C        -2.4809720700        8.0204164900       12.3297887500
  C         3.5602254800        7.2330110000       12.3170725700
  C        -3.7714603700        7.2843152300       12.3231157700
  C         4.9733509900        5.1025374200       12.3929111700
  C        -1.3642756400       11.4934507400       12.2650652500
  C        -1.3480902400        9.9925320300       12.2749450200
  C         6.1230297600        3.1378894200       12.3178004100
  C        -2.5423150000       12.2805647900       12.2947571300
  C         2.4245247000        5.1546697400       12.3102882900
  C         1.0842770300        7.2403334700       12.2217105500
  C         4.9369765800        0.8807373100       12.3120938000
  C         9.8044587200        5.2141603600       12.2902096200
  C         1.5869441800        5.8627216600        8.7696912300
  C         3.9865231000        7.2149571400        8.7860557500
  C        -3.3458116500        7.2739440500        8.8408176200
  C        -2.0531408400        8.0187308600        8.8595750200
  C        -0.9161286200       11.4800414000        8.7987319200
  C        10.1745463000        5.1616801100        8.7706833800
  C         5.3023192400        0.8291714500        8.7837527600
  C        -5.0269140200        7.9473253100       12.3126684900
  C         7.2501970000        5.1152810400       12.2445510900
  C         2.7981927700        5.1620960100        8.8176235900
  C        -0.9152675100        9.9892447100        8.8025900500
  C         1.5155923500        7.2737057700        8.7334579600
  C         8.9839349100        7.2154251600        8.8083376600
  C         6.4873858400        3.0862751200        8.7698991800
  C         4.0567842100        5.8038048600        8.8299937400
  C         5.3481625400        5.0569696300        8.8654914200
  C         0.2229431800        8.0192115300        8.7016328600
  C         8.9163144000        5.8040573400        8.7737753500
  C         7.6254340700        5.0575819900        8.7435773900
  C         6.4887470000        1.5951244800        8.7687274000
  C         3.6671542500        5.8262530900       12.3534594100
  C        -4.6032986200        7.9167487600        8.8173826700
  C         6.1235985600        1.6467736300       12.3039233000
  C         0.2711528700       12.2453938000        8.7723708200
  C        -3.4173571000        5.8632078100        8.8373211500
  C         8.6164836800        7.2686440000       12.3234610900
  C         2.7740501200        7.9157468200        8.7574563300
  C         2.3324937600        7.8996468300       12.2244494500
  C        -2.1028704200       12.2463276600        8.8137501000
  C         8.5445055300        5.8578302500       12.2844808900
  C        -0.2076237200        8.0049453000       12.1905935700
  C         1.1902855800        5.8247034300       12.2753996800
  C         7.3094475100        0.8805454600       12.2905294400
  C         7.6749330000        0.8288530500        8.7646059400
  C        -3.8271313900        5.8664421500       12.3048565500
  C        -0.1774913800       12.2533886000       12.2365223300
  N        -0.1659339400        9.3542781100       12.1309254900
  N         7.2968228000        3.7730026700       12.1341437000
  N         7.6672645400        3.7172541800        8.6098317000
  N         6.4882186600        5.7707706700        8.8377376200
  N        -2.5245954100        9.3624124500       12.4467265300
  N        -1.3497022600        7.2966965800       12.2196700400
  N        -2.0914285800        9.3592508500        8.9955022500
  N        -0.9167207900        7.3054692800        8.7555492500
  N         5.3055448400        3.7124083100        8.9320166200
  N         6.1052713300        5.8248524200       12.2999461100
  N         4.9461784300        3.7607651100       12.5214381500
  N         0.2625822200        9.3628323800        8.6124250600
  F         2.4032337400        9.2312088600       12.1342218900
  F         8.8794081100        1.4098613400        8.7666275700
  F         2.6950245300        3.8287970000        8.8454169700
  F         5.0922693500        7.9675116900        8.7670926500
  F         4.6388231900        8.0210942100       12.3665125900
  F         2.3753012400        3.8152456200       12.2889854300
  F        -2.7227205900        5.0998196800       12.2895670200
  F        10.2745331600        3.8280970400        8.7659827200
  F         3.7339765000        1.4628677900       12.2890830600
  F         9.9074809000        3.8805509800       12.2881362800
  F        -3.7529437400       11.7150808600       12.2885727600
  F         4.0992074000        1.4113244000        8.7665330400
  F        -2.3138292200        5.1100264900        8.8458681000
  F        -4.6985469300        9.2490553600        8.7668959700
  F         1.4759608000       11.6644861800        8.7668734300
  F         0.1155000500        5.0258827200       12.2877470000
  F        -5.1391712300        9.2872406900       12.2893906300
  F        -3.3091799300       11.6674813300        8.8439436900
  F         2.8731131200        9.2492317300        8.7656472600
  F         8.5134020900        1.4622167500       12.2896250700
  F         0.4833821000        5.1079250200        8.7658014000
  F         1.0087941700       11.6462392100       12.1352360200
  F        22.6765485200        7.9677503500        8.8435838500
  F        22.2501233600        8.0079048400       12.2894648800
  C        12.3784424700        8.0711259000       12.3796669400
  C        18.4161423300        7.2674012500       12.3219317300
  C        11.0878273400        7.3243768200       12.3398733800
  C        19.7575046300        5.0975318800       12.3874592800
  C        13.5174333100       11.5328486200       12.3097283900
  C        13.5170163100       10.0423871000       12.3010987300
  C        20.8966567600        3.1257161400       12.3267527000
  C        12.3323082600       12.2992414500       12.3042441000
  C        17.2226321900        5.2138120200       12.3467416300
  C        15.9461250300        7.3261349200       12.2944430900
  C        19.7288899400        0.8749999600       12.3443591800
  C        24.5619787800        5.1683320700       12.2971874800
  C        16.3857737200        5.8631968100        8.7741622400
  C        18.7855613600        7.2162695100        8.7874216800
  C        11.4551630300        7.2725175000        8.8167078000
  C        12.7461962200        8.0182889600        8.8529465600
  C        13.8806182500       11.4800442700        8.8163348700
  C        24.9707996100        5.1632254800        8.8274332000
  C        20.0986447000        0.8318217000        8.8193142700
  C         9.8301441300        7.9674160900       12.3223056500
  C        22.0284179600        5.0935164900       12.2914345200
  C        17.5970456600        5.1626083200        8.8172860100
  C        13.8828266800        9.9893204900        8.8089882900
  C        16.3148967200        7.2745428900        8.7411418300
  C        23.7838901800        7.2176381300        8.8267365000
  C        21.2854598700        3.0879327300        8.7910655200
  C        18.8546948700        5.8056390400        8.8249659300
  C        20.1454513300        5.0599191900        8.8551916500
  C        15.0230615200        8.0208373200        8.7083389500
  C        23.7143279900        5.8069108200        8.8159465700
  C        22.4237676200        5.0606494800        8.7911442800
  C        21.2860438400        1.5974809600        8.7995857100
  C        18.4776824900        5.8551264200       12.3547417900
  C        10.1969941600        7.9150960900        8.8038408700
  C        20.9132858900        1.6391694200       12.3300307900
  C        15.0665956600       12.2463245000        8.8149425900
  C        11.3868077500        5.8618062400        8.7863509200
  C        23.3616888300        7.2490831400       12.3041784500