     680
 i =        0, time =        0.000, E =     -7805.4066306424
  F        -0.0029861680        0.0084391127       -0.0058565586
  F        -0.0004539462        0.0030586584        0.0001061579
  C         0.0014284267        0.0009188460       -0.0002365655
  C        -0.0000430285       -0.0005591018       -0.0000987338
  C        -0.0001936341       -0.0000650435        0.0001542591
  C         0.0013877069       -0.0008632220       -0.0001009938
  C         0.0000248561        0.0001371332       -0.0002772494
  C        -0.0001262585       -0.0016174115       -0.0002218714
  C         0.0000050038        0.0016801761       -0.0002017612
  C         0.0002005025       -0.0004109205       -0.0003053558
  C         0.0003811077        0.0001698176       -0.0001869263
  C         0.0001751436       -0.0001118309        0.0001199656
  C         0.0001399933       -0.0004496815       -0.0000906723
  C        -0.0002383639        0.0001424025        0.0002963523
  C        -0.0000502805        0.0006427848        0.0002071991
  C        -0.0000686090       -0.0004492515        0.0002028114
  C        -0.0000718823       -0.0001191790        0.0001176687
  C         0.0014320523        0.0008446180       -0.0002978479
  C         0.0000340456        0.0001673307        0.0001648740
  C        -0.0004603690        0.0000513075        0.0003698032
  C         0.0001769111        0.0000948527       -0.0000513950
  C         0.0005247245       -0.0000010183        0.0001972579
  C        -0.0014430598       -0.0008522799        0.0000938425
  C         0.0005234005        0.0002171337        0.0003259696
  C        -0.0000301703       -0.0016274349        0.0000797816
  C         0.0001974786       -0.0002128051       -0.0002869347
  C         0.0001972915        0.0000351416        0.0002406829
  C        -0.0000623875        0.0017115698        0.0002161599
  C        -0.0003140235        0.0000886228       -0.0000085798
  C         0.0013797866       -0.0010178901       -0.0003403072
  C        -0.0014472389        0.0008996376        0.0002887645
  C         0.0001671284        0.0000841055       -0.0001654697
  C        -0.0014675749       -0.0008669852        0.0002501276
  C        -0.0001661141       -0.0001487336        0.0002959683
  C        -0.0001324363        0.0001196264        0.0000902779
  C         0.0001268711       -0.0000718816        0.0002834518
  C         0.0000075777       -0.0001585403       -0.0002829936
  C        -0.0001786971        0.0000687332        0.0004111374
  C        -0.0001430107       -0.0000150710        0.0002398609
  C         0.0000791075       -0.0000374044       -0.0003867302
  C        -0.0004123931       -0.0002599365        0.0003222734
  C        -0.0004251498       -0.0003002574        0.0002761793
  C         0.0002221360       -0.0001310305        0.0002505693
  C         0.0001478594        0.0001306998        0.0002661848
  C        -0.0015096215        0.0007935510       -0.0000409576
  C         0.0000049880        0.0004880711        0.0000698972
  C        -0.0001803723        0.0004924526       -0.0002119335
  C        -0.0000969589       -0.0001497914        0.0003225657
  C        -0.0003835492       -0.0001690763        0.0002058524
  C        -0.0001919915        0.0004114085        0.0002605775
  N        -0.0004566404       -0.0018745104       -0.0008880153
  N        -0.0006044345        0.0018030038       -0.0010286682
  N        -0.0006898054        0.0017736103        0.0017038767
  N         0.0003890147       -0.0008104105       -0.0002531502
  N         0.0004779807       -0.0017063555       -0.0012046148
  N         0.0002184272        0.0008091923        0.0010983857
  N         0.0005005379       -0.0016057407        0.0008375833
  N         0.0002749775        0.0009985208       -0.0012595394
  N         0.0004381052        0.0019227355        0.0008896500
  N         0.0001655656       -0.0008970248        0.0004090782
  N         0.0005786113        0.0018372496       -0.0018262564
  N        -0.0005488280       -0.0019164827        0.0016689720
  F         0.0004375011        0.0046256180        0.0049303022
  F         0.0066136589        0.0016780568       -0.0043497436
  F         0.0018542540       -0.0011959497       -0.0045279595
  F         0.0047991445        0.0024859774       -0.0048101862
  F         0.0030507236        0.0035863675        0.0054825152
  F         0.0012826556       -0.0004625214        0.0056544823
  F         0.0009010539       -0.0042575992        0.0057713377
  F         0.0016246980       -0.0058216242       -0.0048848211
  F        -0.0093487461       -0.0007955612        0.0041939507
  F         0.0017231876       -0.0049760595        0.0043602434
  F         0.0003414893       -0.0008985195        0.0038592432
  F        -0.0046815736       -0.0008751871       -0.0030397056
  F         0.0009648742       -0.0032357423       -0.0035140218
  F         0.0020495465        0.0012150667       -0.0049724635
  F         0.0103183474        0.0009474671       -0.0043492622
  F        -0.0049891053       -0.0024709369        0.0052105897
  F         0.0003949453        0.0017539625        0.0028894457
  F        -0.0013173661       -0.0025331544       -0.0054715261
  F         0.0022151441        0.0047419663       -0.0057453558
  F         0.0019560771        0.0024718602        0.0003136586
  F        -0.0030106890       -0.0031149909       -0.0059135155
  F         0.0083079047        0.0009774731        0.0056245189
  F        -0.0022220787        0.0086962047       -0.0052244252
  F        -0.0008923888        0.0037762059       -0.0008721026
  C         0.0015040273        0.0009172915        0.0000267478
  C         0.0000618897       -0.0003740869       -0.0001679936
  C        -0.0002406337       -0.0000445301        0.0000800765
  C         0.0014207901       -0.0008285969       -0.0001958403
  C        -0.0000485682        0.0002657964       -0.0003413607
  C         0.0001090520       -0.0016680373       -0.0001857091
  C         0.0000319812        0.0015986771       -0.0001884860
  C         0.0002586289       -0.0002281757       -0.0004027674
  C         0.0005103448        0.0000311192        0.0000296145
  C         0.0002389686       -0.0001175616        0.0001738235
  C         0.0001464755        0.0001494087       -0.0000088325
  C        -0.0000423322        0.0001640796       -0.0000543624
  C        -0.0000067449        0.0003627654        0.0001909285
  C         0.0000671537       -0.0004545887       -0.0000537460
  C        -0.0002622780       -0.0001890969       -0.0000728297
  C         0.0015306203        0.0008732002       -0.0003203921
  C         0.0000325742        0.0001948962       -0.0001682910
  C        -0.0003797362       -0.0000508207        0.0000351454
  C         0.0000879859       -0.0002744129       -0.0002044437
  C         0.0004217941       -0.0000081004        0.0000081831
  C        -0.0014210484       -0.0008705909        0.0000187474
  C         0.0002453408        0.0001891615       -0.0002548486
  C         0.0000402969       -0.0017028415       -0.0000927266
  C         0.0002112826       -0.0000526750        0.0001609953
  C         0.0001867408        0.0001309447        0.0001677924
  C        -0.0000096561        0.0016920124        0.0002861079
  C        -0.0001106942        0.0001181040       -0.0002517491
  C         0.0014048170       -0.0008939300       -0.0000828538
  C        -0.0014212958        0.0009115393       -0.0001198241
  C         0.0001533684        0.0000300999        0.0001434438
  C        -0.0015173568       -0.0008812980        0.0000253764
  C         0.0000930189       -0.0003248637        0.0001385160
  C        -0.0001072704        0.0000842603        0.0003028605
  C         0.0002953044       -0.0000877041       -0.0000859633
  C        -0.0000931498       -0.0001920426       -0.0001134390
  C        -0.0000809261        0.0000816658       -0.0002067854
  C        -0.0000358905        0.0000395084        0.0003691394
  C         0.0000318108       -0.0000365752        0.0000325550
  C        -0.0005018912       -0.0002143203        0.0004024871
  C        -0.0003812482       -0.0002242574        0.0000591612
  C         0.0001940321       -0.0001386620       -0.0000331986
  C         0.0001080336        0.0001130186       -0.0003584092
  C        -0.0014763407        0.0009451487        0.0000538759
  C        -0.0002585378        0.0004162407       -0.0003381305
  C        -0.0001848583        0.0000230758       -0.0000814093
  C        -0.0003111325        0.0004124535        0.0003616632
  C        -0.0001845025       -0.0000786843       -0.0000830572
  C        -0.0000874425        0.0001588874        0.0002693334
  N        -0.0005536602       -0.0018701448       -0.0007735515
  N        -0.0012413950        0.0015808635       -0.0002430357
  N        -0.0010038067        0.0014071016       -0.0007400246
  N         0.0000090313       -0.0006124824       -0.0010192255
  N         0.0006593915       -0.0018059532       -0.0017847314
  N         0.0001660901        0.0008683060        0.0009888952
  N         0.0009748692       -0.0015563825       -0.0001855122
  N        -0.0002167142        0.0007610392       -0.0011520935
  N         0.0008821629        0.0012869563       -0.0007439103
  N        -0.0000872410       -0.0006008218        0.0015353456
  N         0.0007618930        0.0011720785        0.0013693395
  N        -0.0007188587       -0.0018130687        0.0013319142
  F        -0.0000264305        0.0049142902        0.0047639526
  F         0.0062219151        0.0015498503       -0.0046378638
  F        -0.0002861867       -0.0048868184       -0.0046934949
  F         0.0041405683        0.0034593688       -0.0037229947
  F         0.0016077841       -0.0001591166        0.0000171590
  F        -0.0001082861       -0.0008084463        0.0029373204
  F         0.0027561341       -0.0083035538        0.0050982957
  F         0.0003831753       -0.0010592228       -0.0050444808
  F        -0.0040486848       -0.0010307833        0.0004152799
  F        -0.0018056077       -0.0008850984        0.0043450019
  F         0.0008146896       -0.0014515335        0.0034140211
  F        -0.0088589070       -0.0012962432       -0.0054932994
  F         0.0001309189       -0.0032106525        0.0000723069
  F        -0.0008989503        0.0052581405       -0.0027035725
  F         0.0034509754        0.0010149242        0.0018318889
  F        -0.0015437907        0.0016040330       -0.0016839536
  F         0.0001436823        0.0011154532        0.0000744300
  F        -0.0005413829       -0.0019724327       -0.0051256156
  F         0.0017904028        0.0044101427       -0.0057380655
  F         0.0010005758        0.0022259043       -0.0003623118
  F        -0.0031745406       -0.0037690876       -0.0048484286
  F         0.0088151868        0.0012261031        0.0038275650
  F        -0.0030584135        0.0087650649       -0.0060139149
  F        -0.0008713953        0.0034386874        0.0004073541
  C         0.0013142024        0.0007895504       -0.0000206697
  C         0.0001986988       -0.0005037113       -0.0002906959
  C        -0.0001645471       -0.0000555186       -0.0000808325
  C         0.0014820987       -0.0008383973       -0.0001720379
  C         0.0000747018        0.0002229142        0.0003681739
  C        -0.0000554223       -0.0018331057        0.0002280792
  C        -0.0000901932        0.0017364114        0.0002704637
  C         0.0001836038        0.0000684829        0.0000721471
  C         0.0002978021        0.0001660526       -0.0000994474
  C         0.0002497464       -0.0000905842        0.0002941929
  C         0.0001384110        0.0000587640       -0.0002574091
  C        -0.0003631500        0.0000702786       -0.0000872716
  C        -0.0002162826        0.0005194301        0.0000913167
  C        -0.0001342946       -0.0002566288        0.0000515271
  C        -0.0002509497       -0.0001250419       -0.0001946970
  C         0.0014421101        0.0007892394       -0.0003499897
  C        -0.0000845703        0.0001979225       -0.0002868798
  C        -0.0003198153        0.0000143971        0.0001565726
  C         0.0001906817       -0.0001847165        0.0000587920
  C         0.0003616251       -0.0001951070       -0.0003852635
  C        -0.0014516253       -0.0008679123        0.0002454149
  C         0.0005950775        0.0001291475       -0.0002055010
  C        -0.0000499788       -0.0017566279        0.0000362075
  C         0.0001840720       -0.0001549597       -0.0002425827
  C         0.0000314392       -0.0000724586        0.0001892479
  C         0.0000163580        0.0016767732        0.0001617954
  C        -0.0002750992        0.0000867958       -0.0001646078
  C         0.0014336665       -0.0008334840       -0.0000399952
  C        -0.0013501382        0.0007772926        0.0004014706
  C         0.0002474268        0.0001384359       -0.0000352974
  C        -0.0014997701       -0.0009353072        0.0000022729
  C        -0.0000470537       -0.0002944904        0.0002299566
  C        -0.0001626693        0.0001223668        0.0002225988
  C         0.0003330744       -0.0001670445        0.0000085407
  C         0.0000207574       -0.0002987117        0.0001872627
  C         0.0000033329        0.0005097126       -0.0001938337
  C        -0.0001125019        0.0000097491        0.0003906737
  C         0.0000806501        0.0000358032       -0.0001393150
  C        -0.0001601552       -0.0002357726       -0.0000520778
  C        -0.0005741946       -0.0001076966       -0.0003199069
  C         0.0002763023       -0.0005456763       -0.0002503544
  C         0.0002697809        0.0001473267        0.0000062923
  C        -0.0016192103        0.0007816880        0.0000084741
  C        -0.0000120550        0.0003952080       -0.0001341971
  C        -0.0003460353        0.0000186402        0.0003236591
  C        -0.0003019298        0.0003170809        0.0003872031
  C        -0.0002018192       -0.0000173210       -0.0002577510
  C        -0.0001302191       -0.0001431963        0.0003224264
  N        -0.0005084980       -0.0016832347        0.0016308042
  N        -0.0007196928        0.0016411181       -0.0011050663
  N        -0.0006414798        0.0017733772        0.0017738319
  N        -0.0000996327       -0.0008423404       -0.0011246082
  N         0.0009118359       -0.0015660372       -0.0001428372
  N        -0.0001809367        0.0006545016        0.0004360237
  N         0.0009907197       -0.0017668005       -0.0001155650
  N        -0.0004815198        0.0007942240       -0.0012294357
  N         0.0005780436        0.0018793338        0.0008883176
  N        -0.0002632213       -0.0009328957        0.0013367450
  N         0.0006414584        0.0014543325        0.0007249710
  N        -0.0001836027       -0.0017695708        0.0002791282
  F        -0.0013922534        0.0009030381        0.0024999564
  F         0.0061078203        0.0017406770       -0.0052756940
  F         0.0000319372       -0.0049558804       -0.0047468465
  F         0.0048427779        0.0026439838       -0.0037861744
  F         0.0028683402        0.0034220607        0.0071725119
  F         0.0016718136       -0.0007266089        0.0028689479
  F         0.0033004190       -0.0089318640        0.0061725526
  F        -0.0010296715       -0.0010145334        0.0008559304
  F        -0.0098995376       -0.0009213980        0.0054439716
  F         0.0018775313       -0.0053143392        0.0028878699
  F        -0.0055999869       -0.0017762798        0.0033310340
  F        -0.0084999067       -0.0010343781       -0.0052512795
  F         0.0008314495       -0.0033556820        0.0004277512
  F        -0.0000558914        0.0053258899       -0.0042710134
  F         0.0036378580        0.0007322966       -0.0001852380
  F        -0.0039262903       -0.0030838730        0.0046445820
  F        -0.0017729596        0.0054965872        0.0052327848
  F        -0.0016701477       -0.0018567103       -0.0007694488
  F        -0.0012598557        0.0008090375       -0.0069800298
  F         0.0047673456        0.0020661818        0.0048955255
  F        -0.0021154440        0.0002581488       -0.0039577586
  F         0.0090794969        0.0013317439        0.0056065673
  F        -0.0011363507        0.0046047317       -0.0031799448
  F        -0.0037759897        0.0081717566        0.0038349657
  C         0.0014775176        0.0009265352       -0.0001563026
  C         0.0006351256       -0.0009174743       -0.0002415524
  C        -0.0001791588       -0.0001734030        0.0002719225
  C         0.0015960055       -0.0008933816       -0.0003634941
  C        -0.0000216451        0.0001949423        0.0001023667
  C         0.0000347181       -0.0016441757        0.0000998865
  C        -0.0000069936        0.0016319259        0.0003269609
  C         0.0002399811       -0.0005624482        0.0001120288
  C        -0.0000145526        0.0002840483        0.0001410671
  C         0.0003274273        0.0001001899        0.0000703246
  C         0.0001505458       -0.0000989112       -0.0002131635
  C        -0.0002466221        0.0000424855       -0.0003128279
  C        -0.0003275985        0.0007178976        0.0002284932
  C        -0.0002931516       -0.0002571677        0.0000315489
  C        -0.0002402037       -0.0001626741       -0.0002035001
  C         0.0014395781        0.0008901762       -0.0002614337
  C         0.0000734717        0.0002245909        0.0001645029
  C        -0.0003283317        0.0000080297        0.0003368863
  C         0.0000860478       -0.0002294433        0.0002419265
  C         0.0003642578       -0.0000278710        0.0002497907
  C        -0.0013959680       -0.0007816488        0.0003132325
  C         0.0007541750        0.0000431767        0.0004180147
  C         0.0000513013       -0.0016433337       -0.0000821446
  C         0.0001295627       -0.0002279925        0.0000635069
  C         0.0001691738        0.0000076509        0.0001067348
  C        -0.0000672841        0.0016410172       -0.0000020990
  C        -0.0002390716        0.0000540824       -0.0001742697
  C         0.0014940879       -0.0009262903       -0.0003537755
  C        -0.0015456024        0.0008876042        0.0000471820
  C         0.0001199106        0.0001276565       -0.0000957462
  C        -0.0013764020       -0.0008542414        0.0000994995
  C         0.0000305434       -0.0001216598       -0.0000491848
  C        -0.0000931560        0.0002719912        0.0001988548
  C         0.0004015552        0.0000247334        0.0002825343
  C        -0.0000243057       -0.0002175895        0.0002872451
  C        -0.0001316164        0.0000101689        0.0004241705
  C        -0.0001562939        0.0001015167        0.0001262504
  C         0.0001944519       -0.0000636329       -0.0001678572
  C        -0.0000413194       -0.0003653471        0.0003075690
  C        -0.0012277244        0.0000923164        0.0000200091
  C         0.0002311988       -0.0001004277       -0.0002299961
  C         0.0001899632        0.0001717776       -0.0001443941
  C        -0.0015149953        0.0009834628        0.0002256914
  C         0.0002369552        0.0000830764       -0.0002924276
  C        -0.0001975189        0.0002385691        0.0003607865
  C        -0.0002153645        0.0002905148       -0.0001904382
  C        -0.0000734130        0.0000450693        0.0000348035
  C        -0.0000890152        0.0003860530        0.0000203277
  N        -0.0006916149       -0.0016137378        0.0004384951
  N        -0.0007899045        0.0013892628       -0.0008469497
  N        -0.0007999470        0.0015535169        0.0012096020
  N        -0.0002453069       -0.0006377666       -0.0010816257
  N         0.0006924809       -0.0016656817       -0.0005199228
  N         0.0002596266        0.0008060827        0.0011910929
  N         0.0007775801       -0.0016627631        0.0010902293
  N         0.0003001615        0.0006400584       -0.0010414751
  N         0.0008700238        0.0016175343       -0.0005125401
  N        -0.0006651234       -0.0007852335       -0.0014986941
  N         0.0006456679        0.0014846459       -0.0008246418
  N        -0.0007511939       -0.0016225001       -0.0008026007
  F        -0.0004379491        0.0045572526        0.0047855447
  F         0.0004135182        0.0013257899        0.0009508609
  F         0.0014234837       -0.0010185321       -0.0025171918
  F         0.0045892635        0.0025967106       -0.0030419555
  F         0.0027715799        0.0025429148        0.0063053641
  F         0.0001534155       -0.0008289432        0.0079748997
  F         0.0013714809       -0.0041940156        0.0025657529
  F         0.0021365329       -0.0059158617       -0.0045164984
  F        -0.0096224210       -0.0008246304        0.0053486269
  F        -0.0008337803       -0.0017063947       -0.0011207892
  F        -0.0003893893       -0.0019118976       -0.0015784392
  F        -0.0083094462       -0.0015168223       -0.0040017391
  F         0.0039369501       -0.0083883819       -0.0041950562
  F         0.0010730385        0.0012835384       -0.0018432903
  F         0.0029172755        0.0013153796       -0.0031372274
  F        -0.0012097377        0.0018487193       -0.0019477069
  F        -0.0002331196        0.0013435175        0.0066018163
  F        -0.0048961448       -0.0021298101       -0.0037422388
  F         0.0009290586        0.0044684026       -0.0041708493
  F         0.0054061433        0.0012743983        0.0034362033
  F        -0.0032292656       -0.0040256171       -0.0056702963
  F         0.0038823798        0.0011261916        0.0058139776
  F        -0.0026312865        0.0084668810       -0.0056588629
  F        -0.0000905371        0.0036145347       -0.0006264831
  C         0.0013876539        0.0009958373       -0.0003775859
  C         0.0000559207        0.0000535344       -0.0002192087
  C        -0.0002931127       -0.0002259607       -0.0001746933
  C         0.0013409496       -0.0011726704       -0.0000744641
  C         0.0000321357        0.0001287140        0.0001096702
  C         0.0001166689       -0.0017718948        0.0003138039
  C        -0.0001119355        0.0016533863       -0.0000482397
  C         0.0003657161       -0.0004938097        0.0001328901
  C        -0.0004724649        0.0000191480       -0.0001816659
  C        -0.0000389209       -0.0000664659       -0.0001390965
  C         0.0000499288       -0.0004900223       -0.0002665843
  C        -0.0004709454        0.0001428120        0.0002801465
  C        -0.0000884752        0.0004995003       -0.0002824399
  C        -0.0001366157       -0.0003164048        0.0001493061
  C        -0.0002241048       -0.0001622073       -0.0002365277
  C         0.0015127207        0.0009138815       -0.0003947426
  C         0.0000334029        0.0001908265        0.0002134431
  C        -0.0003917657       -0.0000089637       -0.0002257686
  C         0.0001227977        0.0000614169       -0.0000438407
  C         0.0002119406        0.0000117461       -0.0002952740
  C        -0.0016952255       -0.0008797186        0.0000631737
  C         0.0005960658        0.0002247844        0.0002206496
  C        -0.0000530058       -0.0016553681        0.0001354240
  C         0.0001536677       -0.0001743306        0.0000437287
  C         0.0001808934       -0.0000117542        0.0001900175
  C        -0.0000812548        0.0016227096        0.0000297746
  C        -0.0002666767        0.0000484147        0.0000106378
  C         0.0013752006       -0.0009798818       -0.0002102855
  C        -0.0014735004        0.0007971202        0.0002595554
  C         0.0001580064        0.0000989151       -0.0001663348
  C        -0.0015147491       -0.0008364358        0.0000730337
  C        -0.0001429820       -0.0000837703       -0.0001570189
  C         0.0000811033        0.0001557266        0.0000286432
  C         0.0003159284       -0.0000619249        0.0002031637
  C         0.0002841063       -0.0003263814       -0.0000225126
  C        -0.0000955524        0.0000115639       -0.0001327174
  C        -0.0001481065        0.0001126233       -0.0000865621
  C         0.0000416974       -0.0002737770       -0.0003998183
  C        -0.0002388550       -0.0003140136       -0.0002811866
  C        -0.0001373621        0.0001246607       -0.0002691949
  C         0.0002990538       -0.0000712052        0.0001875400
  C         0.0004025636        0.0002333578        0.0003052854
  C        -0.0014775053        0.0007270167        0.0003310755
  C         0.0001711171        0.0002244149        0.0002342756
  C        -0.0004532802        0.0006603539        0.0003354600
  C        -0.0000731341       -0.0001224667       -0.0002136871
  C         0.0000109560        0.0002104309        0.0000216620
  C        -0.0000428862       -0.0000149164       -0.0001389845
  N        -0.0009577195       -0.0008481951       -0.0010181128
  N        -0.0002065639        0.0013640645       -0.0011206869
  N        -0.0008433245        0.0015925992        0.0011607827
  N        -0.0000919924       -0.0008121702       -0.0009584401
  N        -0.0008322793        0.0004200847       -0.0000548359
  N         0.0009610892        0.0006418199       -0.0000822362
  N         0.0003254609       -0.0016279421        0.0009969814
  N         0.0001682345        0.0008363554       -0.0015139274
  N         0.0007221095        0.0016484446       -0.0004813780
  N         0.0007887502       -0.0002939223        0.0007576376
  N         0.0004628235        0.0019778371       -0.0014823213
  N        -0.0005815574       -0.0018845021        0.0013965815
  F         0.0012306062        0.0036971161       -0.0048007821
  F         0.0001203939        0.0017664515        0.0016907852
  F         0.0008722338       -0.0048967015       -0.0044501271
  F         0.0019534124       -0.0015971945       -0.0041399013
  F         0.0024684936        0.0002755415        0.0051282158
  F        -0.0034222603       -0.0014626965        0.0017478145
  F        -0.0034252438       -0.0019544412        0.0002295466
  F         0.0005107813       -0.0013369126       -0.0011153153
  F        -0.0099136256       -0.0000101740        0.0046467512
  F         0.0031486325       -0.0054287922        0.0029012449
  F        -0.0085869473        0.0007350816        0.0022590148
  F        -0.0042964817       -0.0010605121       -0.0026152965
  F         0.0044193858       -0.0083264745       -0.0039971490
  F         0.0015279344        0.0019376184       -0.0014976057
  F         0.0038352614        0.0009674859        0.0003845425
  F        -0.0008212442       -0.0015978711       -0.0023472031
  F         0.0002412624       -0.0039586946       -0.0015223902
  F        -0.0045330900       -0.0016043753       -0.0050921047
  F        -0.0006560139        0.0014899675       -0.0033379931
  F         0.0055717419        0.0020779437        0.0039765811
  F        -0.0015348115        0.0004163208       -0.0029164148
  F         0.0050339486       -0.0022837126       -0.0034827802
  F        -0.0026883260        0.0089213343       -0.0063342017
  F         0.0033537766       -0.0013473022       -0.0029944928
  C         0.0014980908        0.0009182609       -0.0000199086
  C        -0.0000864847       -0.0003161943       -0.0001444734
  C        -0.0003060660       -0.0001348710       -0.0001669857
  C         0.0013395067       -0.0009640798        0.0000452702
  C         0.0000105366        0.0002627433       -0.0001543169
  C         0.0000519390       -0.0017253400        0.0000776754
  C        -0.0001136862        0.0017832342       -0.0001944236
  C         0.0003085095       -0.0001370889       -0.0001398828
  C         0.0005358588        0.0001620527        0.0000014606
  C         0.0002042044       -0.0002249417        0.0001179864
  C         0.0001289154        0.0002297739       -0.0002151695
  C        -0.0002376459       -0.0000159112        0.0001968432
  C        -0.0000254614        0.0002672384       -0.0001146643
  C         0.0001383620       -0.0004406435        0.0001650363
  C        -0.0002186957       -0.0001489379        0.0002691743
  C         0.0014690720        0.0008803934       -0.0003452121
  C        -0.0000018268        0.0002543213        0.0002292149
  C        -0.0004377015        0.0000438146        0.0000373109
  C         0.0000744207       -0.0003138635        0.0000884787
  C         0.0002822371       -0.0001283105       -0.0003525045
  C        -0.0016149307       -0.0009123861        0.0000979264
  C         0.0003804754        0.0001817462        0.0002218850
  C        -0.0000218203       -0.0016341756        0.0002015810
  C         0.0002380266       -0.0001025808       -0.0000520508
  C         0.0000933011       -0.0000465801       -0.0000541818
  C         0.0000535793        0.0016605350        0.0002599773
  C        -0.0002170186        0.0001190134        0.0001247140
  C         0.0013498478       -0.0008450997       -0.0001173875
  C        -0.0014452912        0.0009147790        0.0003772700
  C         0.0002470154        0.0001488739        0.0001219635
  C        -0.0014981500       -0.0008998775        0.0001238276
  C         0.0001417135       -0.0002590316        0.0002393082
  C        -0.0001431020        0.0000385703        0.0002855795
  C         0.0002750144       -0.0000895918        0.0002894121
  C        -0.0000730335       -0.0003930548       -0.0001903143
  C        -0.0001360778        0.0001458858        0.0003193056
  C        -0.0000770791       -0.0000007016        0.0001362024
  C         0.0000462559        0.0000301032       -0.0000939884